TITLE = "FDS_Roe_SCS_WENO (5_od)_R-K (3_od TVD)" 
VARIABLES =  "X", "Density", "Pressure", "Velocity", "Specific Internal Energy" 
zone I =201, t = "FDS_Roe_SCS_WENO (5_od)_R-K (3_od TVD)" 
DATAPACKING = point 
-0.5           1           1           0         2.5 
-0.495           1           1           0         2.5 
-0.49           1           1           0         2.5 
-0.485           1           1           0         2.5 
-0.48           1           1           0         2.5 
-0.475           1           1           0         2.5 
-0.47           1           1           0         2.5 
-0.465           1           1           0         2.5 
-0.46           1           1           0         2.5 
-0.455           1           1           0         2.5 
-0.45           1           1           0         2.5 
-0.445           1           1           0         2.5 
-0.44           1           1           0         2.5 
-0.435           1           1           0         2.5 
-0.43           1           1           0         2.5 
-0.425           1           1           0         2.5 
-0.42           1           1           0         2.5 
-0.415           1           1           0         2.5 
-0.41           1           1           0         2.5 
-0.405           1           1           0         2.5 
-0.4           1           1           0         2.5 
-0.395           1           1           0         2.5 
-0.39           1           1           0         2.5 
-0.385           1           1           0         2.5 
-0.38           1           1           0         2.5 
-0.375           1           1           0         2.5 
-0.37           1           1           0         2.5 
-0.365           1           1           0         2.5 
-0.36           1           1           0         2.5 
-0.355           1           1           0         2.5 
-0.35           1           1           0         2.5 
-0.345           1           1           0         2.5 
-0.34           1           1           0         2.5 
-0.335           1           1           0         2.5 
-0.33           1           1           0         2.5 
-0.325           1           1  4.4409e-17         2.5 
-0.32           1           1  2.4055e-16         2.5 
-0.315           1           1   5.107e-16         2.5 
-0.31           1           1 -8.1416e-17         2.5 
-0.305           1           1 -3.7822e-15         2.5 
-0.3           1           1 -2.6608e-15         2.5 
-0.295           1           1  2.1927e-14         2.5 
-0.29           1           1  3.8258e-14         2.5 
-0.285           1           1 -8.5287e-14         2.5 
-0.28           1           1 -2.8377e-13         2.5 
-0.275           1           1  2.2425e-13         2.5 
-0.27           1           1  1.7736e-12         2.5 
-0.265           1           1  4.9261e-13         2.5 
-0.26           1           1  -8.961e-12         2.5 
-0.255           1           1 -1.1626e-11         2.5 
-0.25           1           1  3.4259e-11         2.5 
-0.245           1           1  9.5571e-11         2.5 
-0.24           1           1 -6.7007e-11         2.5 
-0.235           1           1 -5.4519e-10         2.5 
-0.23           1           1 -3.0341e-10         2.5 
-0.225           1           1  2.2313e-09         2.5 
-0.22           1           1  4.1258e-09         2.5 
-0.215           1           1 -5.0602e-09         2.5 
-0.21           1           1 -2.4987e-08         2.5 
-0.205           1           1  -1.059e-08         2.5 
-0.2           1           1  9.3652e-08         2.5 
-0.195           1           1   1.764e-07         2.5 
-0.19           1           1 -1.2992e-07         2.5 
-0.185           1           1 -8.9418e-07         2.5 
-0.18           1           1 -8.1883e-07         2.5 
-0.175           1           1  2.2743e-06         2.5 
-0.17     0.99999     0.99999  7.1954e-06         2.5 
-0.165           1     0.99999  5.0725e-06         2.5 
-0.16           1           1 -1.3152e-05         2.5 
-0.155           1           1  -3.056e-05         2.5 
-0.15     0.99998     0.99997  2.4849e-05         2.5 
-0.145     0.99973     0.99963  0.00031077      2.4997 
-0.14     0.99899     0.99858   0.0011863       2.499 
-0.135      0.9971     0.99595   0.0034206      2.4971 
-0.13     0.99265     0.98973   0.0087151      2.4926 
-0.125     0.98275     0.97594    0.020542      2.4827 
-0.12     0.96561     0.95221    0.041237      2.4653 
-0.115     0.94267      0.9207    0.069402      2.4417 
-0.11      0.9163     0.88485     0.10248      2.4142 
-0.105     0.88836     0.84731     0.13836      2.3845 
-0.1     0.85995     0.80963      0.1758      2.3537 
-0.095      0.8316     0.77251     0.21414      2.3224 
-0.09     0.80357     0.73631     0.25311      2.2907 
-0.085     0.77599     0.70118     0.29251       2.259 
-0.08     0.74895     0.66721     0.33227      2.2272 
-0.075     0.72249     0.63444     0.37229      2.1953 
-0.07     0.69664     0.60289     0.41254      2.1636 
-0.065     0.67141     0.57256     0.45299      2.1319 
-0.06     0.64683     0.54341     0.49359      2.1003 
-0.055     0.62286     0.51547     0.53437       2.069 
-0.05      0.5996     0.48867     0.57519      2.0375 
-0.045       0.577     0.46312     0.61614      2.0066 
-0.04     0.55499     0.43869     0.65683      1.9761 
-0.035     0.53438     0.41568     0.69747      1.9447 
-0.03     0.51359     0.39367     0.73767      1.9163 
-0.025     0.49339     0.37242     0.77882       1.887 
-0.02     0.47475     0.35155     0.82185      1.8512 
-0.015     0.45341     0.33175     0.86361      1.8292 
-0.01     0.43913     0.31537     0.90117      1.7954 
-0.005     0.42903     0.30542     0.92144      1.7797 
0     0.42579     0.30356     0.92719      1.7823 
0.005     0.42562     0.30344     0.92697      1.7823 
0.01     0.42589     0.30276     0.92809      1.7772 
0.015     0.42688      0.3027     0.92881      1.7727 
0.02     0.42655     0.30266     0.92948      1.7739 
0.025       0.425     0.30262     0.92942      1.7801 
0.03     0.42422     0.30259     0.92874      1.7832 
0.035     0.42517     0.30253     0.92805      1.7788 
0.04     0.42679     0.30258     0.92787      1.7724 
0.045     0.42739     0.30275     0.92791      1.7709 
0.05     0.42584     0.30293     0.92812      1.7785 
0.055     0.42431     0.30313     0.92835       1.786 
0.06     0.42509      0.3033     0.92799      1.7838 
0.065     0.42672     0.30324     0.92782      1.7766 
0.07     0.42749     0.30312     0.92764      1.7727 
0.075     0.42573     0.30302     0.92732      1.7794 
0.08      0.4164     0.30295     0.92686      1.8189 
0.085     0.38506     0.30297     0.92688       1.967 
0.09     0.33307      0.3028     0.92636      2.2727 
0.095     0.28667      0.3023     0.92472      2.6363 
0.1     0.26708     0.30334     0.92825      2.8394 
0.105     0.26248     0.30368     0.92926      2.8924 
0.11       0.262     0.30324      0.9281      2.8934 
0.115     0.26299     0.30264     0.92624      2.8769 
0.12     0.26444     0.30234     0.92525      2.8582 
0.125     0.26568     0.30249     0.92563      2.8464 
0.13     0.26627     0.30303     0.92715      2.8451 
0.135     0.26627     0.30376     0.92925       2.852 
0.14     0.26591     0.30424     0.93061      2.8603 
0.145     0.26537     0.30398     0.92978      2.8637 
0.15     0.26496     0.30328     0.92763      2.8616 
0.155     0.26467     0.30231     0.92464      2.8555 
0.16     0.26397     0.30054     0.91924      2.8464 
0.165     0.26076     0.29511      0.9024      2.8293 
0.17     0.24222     0.26721     0.81306      2.7579 
0.175     0.17731     0.17068     0.42907      2.4065 
0.18      0.1324     0.10867    0.063694      2.0518 
0.185     0.12577     0.10086   0.0064174       2.005 
0.19     0.12506     0.10007  0.00042154      2.0004 
0.195     0.12499    0.099985   -9.82e-05      1.9999 
0.2       0.125         0.1  2.9312e-06           2 
0.205       0.125         0.1  1.9435e-05           2 
0.21       0.125         0.1  -2.231e-07           2 
0.215       0.125         0.1 -1.9455e-06           2 
0.22       0.125         0.1  2.2105e-07           2 
0.225       0.125         0.1    2.17e-07           2 
0.23       0.125         0.1  -3.925e-08           2 
0.235       0.125         0.1 -2.1601e-08           2 
0.24       0.125         0.1   6.134e-09           2 
0.245       0.125         0.1  2.0327e-09           2 
0.25       0.125         0.1 -8.4888e-10           2 
0.255       0.125         0.1  -1.688e-10           2 
0.26       0.125         0.1  1.0971e-10           2 
0.265       0.125         0.1  1.1133e-11           2 
0.27       0.125         0.1 -1.3397e-11           2 
0.275       0.125         0.1  -2.766e-13           2 
0.28       0.125         0.1  1.5572e-12           2 
0.285       0.125         0.1 -8.3892e-14           2 
0.29       0.125         0.1 -1.7319e-13           2 
0.295       0.125         0.1  2.1753e-14           2 
0.3       0.125         0.1  1.8104e-14           2 
0.305       0.125         0.1 -3.6859e-15           2 
0.31       0.125         0.1 -1.6579e-15           2 
0.315       0.125         0.1   5.144e-16           2 
0.32       0.125         0.1  1.4803e-16           2 
0.325       0.125         0.1 -3.7007e-18           2 
0.33       0.125         0.1           0           2 
0.335       0.125         0.1           0           2 
0.34       0.125         0.1           0           2 
0.345       0.125         0.1           0           2 
0.35       0.125         0.1           0           2 
0.355       0.125         0.1           0           2 
0.36       0.125         0.1           0           2 
0.365       0.125         0.1           0           2 
0.37       0.125         0.1           0           2 
0.375       0.125         0.1           0           2 
0.38       0.125         0.1           0           2 
0.385       0.125         0.1           0           2 
0.39       0.125         0.1           0           2 
0.395       0.125         0.1           0           2 
0.4       0.125         0.1           0           2 
0.405       0.125         0.1           0           2 
0.41       0.125         0.1           0           2 
0.415       0.125         0.1           0           2 
0.42       0.125         0.1           0           2 
0.425       0.125         0.1           0           2 
0.43       0.125         0.1           0           2 
0.435       0.125         0.1           0           2 
0.44       0.125         0.1           0           2 
0.445       0.125         0.1           0           2 
0.45       0.125         0.1           0           2 
0.455       0.125         0.1           0           2 
0.46       0.125         0.1           0           2 
0.465       0.125         0.1           0           2 
0.47       0.125         0.1           0           2 
0.475       0.125         0.1           0           2 
0.48       0.125         0.1           0           2 
0.485       0.125         0.1           0           2 
0.49       0.125         0.1           0           2 
0.495       0.125         0.1           0           2 
0.5       0.125         0.1           0           2 
