TITLE = "Exact" 
VARIABLES =  "X", "Density", "Pressure", "Velocity", "Specific Internal Energy" 
zone I =1000, t = "Exact" 
DATAPACKING = point 
-0.5           1           1           0         2.5 
-0.499           1           1           0         2.5 
-0.498           1           1           0         2.5 
-0.497           1           1           0         2.5 
-0.496           1           1           0         2.5 
-0.49499           1           1           0         2.5 
-0.49399           1           1           0         2.5 
-0.49299           1           1           0         2.5 
-0.49199           1           1           0         2.5 
-0.49099           1           1           0         2.5 
-0.48999           1           1           0         2.5 
-0.48899           1           1           0         2.5 
-0.48799           1           1           0         2.5 
-0.48699           1           1           0         2.5 
-0.48599           1           1           0         2.5 
-0.48498           1           1           0         2.5 
-0.48398           1           1           0         2.5 
-0.48298           1           1           0         2.5 
-0.48198           1           1           0         2.5 
-0.48098           1           1           0         2.5 
-0.47998           1           1           0         2.5 
-0.47898           1           1           0         2.5 
-0.47798           1           1           0         2.5 
-0.47698           1           1           0         2.5 
-0.47598           1           1           0         2.5 
-0.47497           1           1           0         2.5 
-0.47397           1           1           0         2.5 
-0.47297           1           1           0         2.5 
-0.47197           1           1           0         2.5 
-0.47097           1           1           0         2.5 
-0.46997           1           1           0         2.5 
-0.46897           1           1           0         2.5 
-0.46797           1           1           0         2.5 
-0.46697           1           1           0         2.5 
-0.46597           1           1           0         2.5 
-0.46496           1           1           0         2.5 
-0.46396           1           1           0         2.5 
-0.46296           1           1           0         2.5 
-0.46196           1           1           0         2.5 
-0.46096           1           1           0         2.5 
-0.45996           1           1           0         2.5 
-0.45896           1           1           0         2.5 
-0.45796           1           1           0         2.5 
-0.45696           1           1           0         2.5 
-0.45596           1           1           0         2.5 
-0.45495           1           1           0         2.5 
-0.45395           1           1           0         2.5 
-0.45295           1           1           0         2.5 
-0.45195           1           1           0         2.5 
-0.45095           1           1           0         2.5 
-0.44995           1           1           0         2.5 
-0.44895           1           1           0         2.5 
-0.44795           1           1           0         2.5 
-0.44695           1           1           0         2.5 
-0.44595           1           1           0         2.5 
-0.44494           1           1           0         2.5 
-0.44394           1           1           0         2.5 
-0.44294           1           1           0         2.5 
-0.44194           1           1           0         2.5 
-0.44094           1           1           0         2.5 
-0.43994           1           1           0         2.5 
-0.43894           1           1           0         2.5 
-0.43794           1           1           0         2.5 
-0.43694           1           1           0         2.5 
-0.43594           1           1           0         2.5 
-0.43493           1           1           0         2.5 
-0.43393           1           1           0         2.5 
-0.43293           1           1           0         2.5 
-0.43193           1           1           0         2.5 
-0.43093           1           1           0         2.5 
-0.42993           1           1           0         2.5 
-0.42893           1           1           0         2.5 
-0.42793           1           1           0         2.5 
-0.42693           1           1           0         2.5 
-0.42593           1           1           0         2.5 
-0.42492           1           1           0         2.5 
-0.42392           1           1           0         2.5 
-0.42292           1           1           0         2.5 
-0.42192           1           1           0         2.5 
-0.42092           1           1           0         2.5 
-0.41992           1           1           0         2.5 
-0.41892           1           1           0         2.5 
-0.41792           1           1           0         2.5 
-0.41692           1           1           0         2.5 
-0.41592           1           1           0         2.5 
-0.41491           1           1           0         2.5 
-0.41391           1           1           0         2.5 
-0.41291           1           1           0         2.5 
-0.41191           1           1           0         2.5 
-0.41091           1           1           0         2.5 
-0.40991           1           1           0         2.5 
-0.40891           1           1           0         2.5 
-0.40791           1           1           0         2.5 
-0.40691           1           1           0         2.5 
-0.40591           1           1           0         2.5 
-0.4049           1           1           0         2.5 
-0.4039           1           1           0         2.5 
-0.4029           1           1           0         2.5 
-0.4019           1           1           0         2.5 
-0.4009           1           1           0         2.5 
-0.3999           1           1           0         2.5 
-0.3989           1           1           0         2.5 
-0.3979           1           1           0         2.5 
-0.3969           1           1           0         2.5 
-0.3959           1           1           0         2.5 
-0.39489           1           1           0         2.5 
-0.39389           1           1           0         2.5 
-0.39289           1           1           0         2.5 
-0.39189           1           1           0         2.5 
-0.39089           1           1           0         2.5 
-0.38989           1           1           0         2.5 
-0.38889           1           1           0         2.5 
-0.38789           1           1           0         2.5 
-0.38689           1           1           0         2.5 
-0.38589           1           1           0         2.5 
-0.38488           1           1           0         2.5 
-0.38388           1           1           0         2.5 
-0.38288           1           1           0         2.5 
-0.38188           1           1           0         2.5 
-0.38088           1           1           0         2.5 
-0.37988           1           1           0         2.5 
-0.37888           1           1           0         2.5 
-0.37788           1           1           0         2.5 
-0.37688           1           1           0         2.5 
-0.37588           1           1           0         2.5 
-0.37487           1           1           0         2.5 
-0.37387           1           1           0         2.5 
-0.37287           1           1           0         2.5 
-0.37187           1           1           0         2.5 
-0.37087           1           1           0         2.5 
-0.36987           1           1           0         2.5 
-0.36887           1           1           0         2.5 
-0.36787           1           1           0         2.5 
-0.36687           1           1           0         2.5 
-0.36587           1           1           0         2.5 
-0.36486           1           1           0         2.5 
-0.36386           1           1           0         2.5 
-0.36286           1           1           0         2.5 
-0.36186           1           1           0         2.5 
-0.36086           1           1           0         2.5 
-0.35986           1           1           0         2.5 
-0.35886           1           1           0         2.5 
-0.35786           1           1           0         2.5 
-0.35686           1           1           0         2.5 
-0.35586           1           1           0         2.5 
-0.35485           1           1           0         2.5 
-0.35385           1           1           0         2.5 
-0.35285           1           1           0         2.5 
-0.35185           1           1           0         2.5 
-0.35085           1           1           0         2.5 
-0.34985           1           1           0         2.5 
-0.34885           1           1           0         2.5 
-0.34785           1           1           0         2.5 
-0.34685           1           1           0         2.5 
-0.34585           1           1           0         2.5 
-0.34484           1           1           0         2.5 
-0.34384           1           1           0         2.5 
-0.34284           1           1           0         2.5 
-0.34184           1           1           0         2.5 
-0.34084           1           1           0         2.5 
-0.33984           1           1           0         2.5 
-0.33884           1           1           0         2.5 
-0.33784           1           1           0         2.5 
-0.33684           1           1           0         2.5 
-0.33584           1           1           0         2.5 
-0.33483           1           1           0         2.5 
-0.33383           1           1           0         2.5 
-0.33283           1           1           0         2.5 
-0.33183           1           1           0         2.5 
-0.33083           1           1           0         2.5 
-0.32983           1           1           0         2.5 
-0.32883           1           1           0         2.5 
-0.32783           1           1           0         2.5 
-0.32683           1           1           0         2.5 
-0.32583           1           1           0         2.5 
-0.32482           1           1           0         2.5 
-0.32382           1           1           0         2.5 
-0.32282           1           1           0         2.5 
-0.32182           1           1           0         2.5 
-0.32082           1           1           0         2.5 
-0.31982           1           1           0         2.5 
-0.31882           1           1           0         2.5 
-0.31782           1           1           0         2.5 
-0.31682           1           1           0         2.5 
-0.31582           1           1           0         2.5 
-0.31481           1           1           0         2.5 
-0.31381           1           1           0         2.5 
-0.31281           1           1           0         2.5 
-0.31181           1           1           0         2.5 
-0.31081           1           1           0         2.5 
-0.30981           1           1           0         2.5 
-0.30881           1           1           0         2.5 
-0.30781           1           1           0         2.5 
-0.30681           1           1           0         2.5 
-0.30581           1           1           0         2.5 
-0.3048           1           1           0         2.5 
-0.3038           1           1           0         2.5 
-0.3028           1           1           0         2.5 
-0.3018           1           1           0         2.5 
-0.3008           1           1           0         2.5 
-0.2998           1           1           0         2.5 
-0.2988           1           1           0         2.5 
-0.2978           1           1           0         2.5 
-0.2968           1           1           0         2.5 
-0.2958           1           1           0         2.5 
-0.29479           1           1           0         2.5 
-0.29379           1           1           0         2.5 
-0.29279           1           1           0         2.5 
-0.29179           1           1           0         2.5 
-0.29079           1           1           0         2.5 
-0.28979           1           1           0         2.5 
-0.28879           1           1           0         2.5 
-0.28779           1           1           0         2.5 
-0.28679           1           1           0         2.5 
-0.28579           1           1           0         2.5 
-0.28478           1           1           0         2.5 
-0.28378           1           1           0         2.5 
-0.28278           1           1           0         2.5 
-0.28178           1           1           0         2.5 
-0.28078           1           1           0         2.5 
-0.27978           1           1           0         2.5 
-0.27878           1           1           0         2.5 
-0.27778           1           1           0         2.5 
-0.27678           1           1           0         2.5 
-0.27578           1           1           0         2.5 
-0.27477           1           1           0         2.5 
-0.27377           1           1           0         2.5 
-0.27277           1           1           0         2.5 
-0.27177           1           1           0         2.5 
-0.27077           1           1           0         2.5 
-0.26977           1           1           0         2.5 
-0.26877           1           1           0         2.5 
-0.26777           1           1           0         2.5 
-0.26677           1           1           0         2.5 
-0.26577           1           1           0         2.5 
-0.26476           1           1           0         2.5 
-0.26376           1           1           0         2.5 
-0.26276           1           1           0         2.5 
-0.26176           1           1           0         2.5 
-0.26076           1           1           0         2.5 
-0.25976           1           1           0         2.5 
-0.25876           1           1           0         2.5 
-0.25776           1           1           0         2.5 
-0.25676           1           1           0         2.5 
-0.25576           1           1           0         2.5 
-0.25475           1           1           0         2.5 
-0.25375           1           1           0         2.5 
-0.25275           1           1           0         2.5 
-0.25175           1           1           0         2.5 
-0.25075           1           1           0         2.5 
-0.24975           1           1           0         2.5 
-0.24875           1           1           0         2.5 
-0.24775           1           1           0         2.5 
-0.24675           1           1           0         2.5 
-0.24575           1           1           0         2.5 
-0.24474           1           1           0         2.5 
-0.24374           1           1           0         2.5 
-0.24274           1           1           0         2.5 
-0.24174           1           1           0         2.5 
-0.24074           1           1           0         2.5 
-0.23974           1           1           0         2.5 
-0.23874           1           1           0         2.5 
-0.23774           1           1           0         2.5 
-0.23674           1           1           0         2.5 
-0.23574           1           1           0         2.5 
-0.23473           1           1           0         2.5 
-0.23373           1           1           0         2.5 
-0.23273           1           1           0         2.5 
-0.23173           1           1           0         2.5 
-0.23073           1           1           0         2.5 
-0.22973           1           1           0         2.5 
-0.22873           1           1           0         2.5 
-0.22773           1           1           0         2.5 
-0.22673           1           1           0         2.5 
-0.22573           1           1           0         2.5 
-0.22472           1           1           0         2.5 
-0.22372           1           1           0         2.5 
-0.22272           1           1           0         2.5 
-0.22172           1           1           0         2.5 
-0.22072           1           1           0         2.5 
-0.21972           1           1           0         2.5 
-0.21872           1           1           0         2.5 
-0.21772           1           1           0         2.5 
-0.21672           1           1           0         2.5 
-0.21572           1           1           0         2.5 
-0.21471           1           1           0         2.5 
-0.21371           1           1           0         2.5 
-0.21271           1           1           0         2.5 
-0.21171           1           1           0         2.5 
-0.21071           1           1           0         2.5 
-0.20971           1           1           0         2.5 
-0.20871           1           1           0         2.5 
-0.20771           1           1           0         2.5 
-0.20671           1           1           0         2.5 
-0.20571           1           1           0         2.5 
-0.2047           1           1           0         2.5 
-0.2037           1           1           0         2.5 
-0.2027           1           1           0         2.5 
-0.2017           1           1           0         2.5 
-0.2007           1           1           0         2.5 
-0.1997           1           1           0         2.5 
-0.1987           1           1           0         2.5 
-0.1977           1           1           0         2.5 
-0.1967           1           1           0         2.5 
-0.1957           1           1           0         2.5 
-0.19469           1           1           0         2.5 
-0.19369           1           1           0         2.5 
-0.19269           1           1           0         2.5 
-0.19169           1           1           0         2.5 
-0.19069           1           1           0         2.5 
-0.18969           1           1           0         2.5 
-0.18869           1           1           0         2.5 
-0.18769           1           1           0         2.5 
-0.18669           1           1           0         2.5 
-0.18569           1           1           0         2.5 
-0.18468           1           1           0         2.5 
-0.18368           1           1           0         2.5 
-0.18268           1           1           0         2.5 
-0.18168           1           1           0         2.5 
-0.18068           1           1           0         2.5 
-0.17968           1           1           0         2.5 
-0.17868           1           1           0         2.5 
-0.17768           1           1           0         2.5 
-0.17668           1           1           0         2.5 
-0.17568           1           1           0         2.5 
-0.17467           1           1           0         2.5 
-0.17367           1           1           0         2.5 
-0.17267           1           1           0         2.5 
-0.17167           1           1           0         2.5 
-0.17067           1           1           0         2.5 
-0.16967           1           1           0         2.5 
-0.16867           1           1           0         2.5 
-0.16767           1           1           0         2.5 
-0.16667           1           1           0         2.5 
-0.16567           1           1           0         2.5 
-0.16466           1           1           0         2.5 
-0.16366           1           1           0         2.5 
-0.16266           1           1           0         2.5 
-0.16166           1           1           0         2.5 
-0.16066           1           1           0         2.5 
-0.15966           1           1           0         2.5 
-0.15866           1           1           0         2.5 
-0.15766           1           1           0         2.5 
-0.15666           1           1           0         2.5 
-0.15566           1           1           0         2.5 
-0.15465           1           1           0         2.5 
-0.15365           1           1           0         2.5 
-0.15265           1           1           0         2.5 
-0.15165           1           1           0         2.5 
-0.15065           1           1           0         2.5 
-0.14965           1           1           0         2.5 
-0.14865           1           1           0         2.5 
-0.14765           1           1           0         2.5 
-0.14665           1           1           0         2.5 
-0.14565           1           1           0         2.5 
-0.14464           1           1           0         2.5 
-0.14364           1           1           0         2.5 
-0.14264           1           1           0         2.5 
-0.14164           1           1           0         2.5 
-0.14064           1           1           0         2.5 
-0.13964           1           1           0         2.5 
-0.13864           1           1           0         2.5 
-0.13764           1           1           0         2.5 
-0.13664           1           1           0         2.5 
-0.13564           1           1           0         2.5 
-0.13463           1           1           0         2.5 
-0.13363           1           1           0         2.5 
-0.13263           1           1           0         2.5 
-0.13163           1           1           0         2.5 
-0.13063           1           1           0         2.5 
-0.12963           1           1           0         2.5 
-0.12863           1           1           0         2.5 
-0.12763           1           1           0         2.5 
-0.12663           1           1           0         2.5 
-0.12563           1           1           0         2.5 
-0.12462           1           1           0         2.5 
-0.12362           1           1           0         2.5 
-0.12262           1           1           0         2.5 
-0.12162           1           1           0         2.5 
-0.12062           1           1           0         2.5 
-0.11962           1           1           0         2.5 
-0.11862           1           1           0         2.5 
-0.11762     0.99505     0.99308   0.0058665       2.495 
-0.11662     0.98805     0.98331    0.014208       2.488 
-0.11562     0.98109     0.97362     0.02255       2.481 
-0.11461     0.97416     0.96402    0.030892       2.474 
-0.11361     0.96728     0.95449    0.039233       2.467 
-0.11261     0.96043     0.94505    0.047575        2.46 
-0.11161     0.95363     0.93569    0.055917       2.453 
-0.11061     0.94686      0.9264    0.064258       2.446 
-0.10961     0.94013      0.9172      0.0726       2.439 
-0.10861     0.93344     0.90807    0.080942      2.4321 
-0.10761     0.92679     0.89902    0.089283      2.4251 
-0.10661     0.92017     0.89005    0.097625      2.4182 
-0.10561     0.91359     0.88116     0.10597      2.4112 
-0.1046     0.90705     0.87234     0.11431      2.4043 
-0.1036     0.90055      0.8636     0.12265      2.3974 
-0.1026     0.89409     0.85493     0.13099      2.3905 
-0.1016     0.88766     0.84634     0.13933      2.3836 
-0.1006     0.88127     0.83782     0.14767      2.3767 
-0.0996     0.87492     0.82938     0.15602      2.3699 
-0.098599      0.8686     0.82101     0.16436       2.363 
-0.097598     0.86232     0.81271      0.1727      2.3562 
-0.096597     0.85607     0.80448     0.18104      2.3493 
-0.095596     0.84987     0.79633     0.18938      2.3425 
-0.094595     0.84369     0.78824     0.19773      2.3357 
-0.093594     0.83756     0.78023     0.20607      2.3289 
-0.092593     0.83146     0.77228     0.21441      2.3221 
-0.091592     0.82539     0.76441     0.22275      2.3153 
-0.090591     0.81937      0.7566     0.23109      2.3085 
-0.08959     0.81337     0.74887     0.23943      2.3017 
-0.088589     0.80741      0.7412     0.24778       2.295 
-0.087588     0.80149      0.7336     0.25612      2.2882 
-0.086587      0.7956     0.72606     0.26446      2.2815 
-0.085586     0.78975     0.71859      0.2728      2.2748 
-0.084585     0.78393     0.71119     0.28114       2.268 
-0.083584     0.77814     0.70385     0.28948      2.2613 
-0.082583     0.77239     0.69658     0.29783      2.2546 
-0.081582     0.76667     0.68937     0.30617      2.2479 
-0.080581     0.76099     0.68223     0.31451      2.2413 
-0.07958     0.75534     0.67515     0.32285      2.2346 
-0.078579     0.74973     0.66813     0.33119      2.2279 
-0.077578     0.74414     0.66118     0.33953      2.2213 
-0.076577     0.73859     0.65429     0.34788      2.2146 
-0.075576     0.73308     0.64746     0.35622       2.208 
-0.074575      0.7276     0.64069     0.36456      2.2014 
-0.073574     0.72215     0.63398      0.3729      2.1948 
-0.072573     0.71673     0.62733     0.38124      2.1882 
-0.071572     0.71134     0.62074     0.38958      2.1816 
-0.070571     0.70599     0.61421     0.39793       2.175 
-0.06957     0.70067     0.60774     0.40627      2.1684 
-0.068569     0.69538     0.60133     0.41461      2.1619 
-0.067568     0.69013     0.59498     0.42295      2.1553 
-0.066567      0.6849     0.58868     0.43129      2.1488 
-0.065566     0.67971     0.58244     0.43963      2.1422 
-0.064565     0.67455     0.57626     0.44798      2.1357 
-0.063564     0.66942     0.57014     0.45632      2.1292 
-0.062563     0.66432     0.56407     0.46466      2.1227 
-0.061562     0.65925     0.55805       0.473      2.1162 
-0.060561     0.65422     0.55209     0.48134      2.1097 
-0.05956     0.64921     0.54619     0.48968      2.1033 
-0.058559     0.64424     0.54034     0.49803      2.0968 
-0.057558     0.63929     0.53454     0.50637      2.0904 
-0.056557     0.63438      0.5288     0.51471      2.0839 
-0.055556      0.6295     0.52311     0.52305      2.0775 
-0.054555     0.62464     0.51747     0.53139      2.0711 
-0.053554     0.61982     0.51188     0.53973      2.0646 
-0.052553     0.61503     0.50635     0.54808      2.0582 
-0.051552     0.61026     0.50087     0.55642      2.0519 
-0.050551     0.60553     0.49544     0.56476      2.0455 
-0.04955     0.60082     0.49006      0.5731      2.0391 
-0.048549     0.59615     0.48473     0.58144      2.0327 
-0.047548      0.5915     0.47945     0.58978      2.0264 
-0.046547     0.58688     0.47421     0.59813        2.02 
-0.045546      0.5823     0.46903     0.60647      2.0137 
-0.044545     0.57774      0.4639     0.61481      2.0074 
-0.043544     0.57321     0.45881     0.62315      2.0011 
-0.042543      0.5687     0.45377     0.63149      1.9948 
-0.041542     0.56423     0.44878     0.63983      1.9885 
-0.040541     0.55978     0.44384     0.64818      1.9822 
-0.03954     0.55536     0.43894     0.65652      1.9759 
-0.038539     0.55097     0.43409     0.66486      1.9697 
-0.037538     0.54661     0.42929      0.6732      1.9634 
-0.036537     0.54228     0.42453     0.68154      1.9572 
-0.035536     0.53797     0.41982     0.68988      1.9509 
-0.034535     0.53369     0.41515     0.69823      1.9447 
-0.033534     0.52944     0.41053     0.70657      1.9385 
-0.032533     0.52521     0.40595     0.71491      1.9323 
-0.031532     0.52101     0.40141     0.72325      1.9261 
-0.030531     0.51684     0.39692     0.73159      1.9199 
-0.02953      0.5127     0.39247     0.73993      1.9137 
-0.028529     0.50858     0.38806     0.74828      1.9076 
-0.027528     0.50449      0.3837     0.75662      1.9014 
-0.026527     0.50042     0.37938     0.76496      1.8953 
-0.025526     0.49639      0.3751      0.7733      1.8892 
-0.024525     0.49237     0.37086     0.78164       1.883 
-0.023524     0.48839     0.36666     0.78998      1.8769 
-0.022523     0.48443     0.36251     0.79833      1.8708 
-0.021522     0.48049     0.35839     0.80667      1.8647 
-0.020521     0.47658     0.35432     0.81501      1.8586 
-0.01952      0.4727     0.35028     0.82335      1.8526 
-0.018519     0.46884     0.34628     0.83169      1.8465 
-0.017518       0.465     0.34233     0.84003      1.8404 
-0.016517      0.4612     0.33841     0.84838      1.8344 
-0.015516     0.45741     0.33453     0.85672      1.8284 
-0.014515     0.45365     0.33069     0.86506      1.8223 
-0.013514     0.44992     0.32688      0.8734      1.8163 
-0.012513     0.44621     0.32312     0.88174      1.8103 
-0.011512     0.44253     0.31939     0.89008      1.8043 
-0.010511     0.44215       0.319     0.89095      1.8037 
-0.0095095     0.44215       0.319     0.89095      1.8037 
-0.0085085     0.44215       0.319     0.89095      1.8037 
-0.0075075     0.44215       0.319     0.89095      1.8037 
-0.0065065     0.44215       0.319     0.89095      1.8037 
-0.0055055     0.44215       0.319     0.89095      1.8037 
-0.0045045     0.44215       0.319     0.89095      1.8037 
-0.0035035     0.44215       0.319     0.89095      1.8037 
-0.0025025     0.44215       0.319     0.89095      1.8037 
-0.0015015     0.44215       0.319     0.89095      1.8037 
-0.0005005     0.44215       0.319     0.89095      1.8037 
0.0005005     0.44215       0.319     0.89095      1.8037 
0.0015015     0.44215       0.319     0.89095      1.8037 
0.0025025     0.44215       0.319     0.89095      1.8037 
0.0035035     0.44215       0.319     0.89095      1.8037 
0.0045045     0.44215       0.319     0.89095      1.8037 
0.0055055     0.44215       0.319     0.89095      1.8037 
0.0065065     0.44215       0.319     0.89095      1.8037 
0.0075075     0.44215       0.319     0.89095      1.8037 
0.0085085     0.44215       0.319     0.89095      1.8037 
0.0095095     0.44215       0.319     0.89095      1.8037 
0.010511     0.44215       0.319     0.89095      1.8037 
0.011512     0.44215       0.319     0.89095      1.8037 
0.012513     0.44215       0.319     0.89095      1.8037 